6    
Iteration 0 Energy -77.98449469
C       -0.0179750928   -0.1136932028   -0.0115175428
H       -0.0496468803    0.0145973544    1.0544147734
H        0.9369204904    0.0146037045   -0.4862662659
C       -1.1084247201   -0.4170070183   -0.7097827982
H       -1.0767529326   -0.5452975755   -1.7757145852
H       -2.0633203033   -0.5453028673   -0.2350335460
6    
Iteration 1 Energy -77.98916238
C       -0.0073003781   -0.0225199882   -0.0029173107
H        0.0062758132    0.0910762065    1.0673613908
H        0.9756120890    0.0941129227   -0.4259033069
C       -1.1673683224   -0.2939857450   -0.7567733887
H       -1.1774375381   -0.4209284879   -1.8256664192
H       -2.1281438447   -0.4166937982   -0.2871607001
6    
Iteration 2 Energy -77.98917928
C        0.0079386746    0.0093136028    0.0061121722
H       -0.0467594931    0.0894305536    1.0781655894
H        0.9506154282    0.0891387963   -0.5086387000
C       -1.1950466291   -0.1921339360   -0.7440027068
H       -1.1383175461   -0.2945297557   -1.8125682498
H       -2.1652425970   -0.3038305404   -0.2917182986
6    
Iteration 3 Energy -77.99004249
C       -0.0056735616   -0.0011156099    0.0022601048
H       -0.0358798155    0.0741876373    1.0735260854
H        0.9527650563    0.0739038518   -0.4764300299
C       -1.1972330732   -0.1578727598   -0.7608669806
H       -1.1745862119   -0.2541321729   -1.8311375457
H       -2.1582537205   -0.2584198512   -0.2917854864
6    
Iteration 4 Energy -77.99018254
C       -0.0250503303   -0.0070235474   -0.0068486065
H       -0.0275987788    0.0517600440    1.0647075166
H        0.9449634889    0.0518817498   -0.4624711903
C       -1.2199582139   -0.0644200024   -0.7690731939
H       -1.1909212232   -0.1478536833   -1.8395887139
H       -2.1813693602   -0.1538379829   -0.2986351530
6    
Iteration 5 Energy -77.99034167
C       -0.0454662779   -0.0078804711   -0.0121391608
H       -0.0543929228    0.0312898979    1.0613264902
H        0.9281444169    0.0299529712   -0.4641878437
C       -1.2320650150    0.0750323555   -0.7806889154
H       -1.2310303256    0.0018116581   -1.8525935779
H       -2.1899275203   -0.0081047380   -0.3027369247
6    
Iteration 6 Energy -77.99058910
C       -0.0640054809   -0.0042953039   -0.0201651051
H       -0.0670132606    0.0338329786    1.0540683689
H        0.9075653506    0.0396401326   -0.4780878061
C       -1.2510214224    0.1643335130   -0.7752575822
H       -1.2300788102    0.0662274821   -1.8460021608
H       -2.2151128531    0.0607193856   -0.3102619737
6    
Iteration 7 Energy -77.98968794
C       -0.1177084580    0.0094587350   -0.0464183183
H       -0.0988272239    0.0798039592    1.0281960055
H        0.8477837043    0.1188483362   -0.5118194695
C       -1.2994910465    0.3480193389   -0.7591220427
H       -1.2220598021    0.1429251568   -1.8163415580
H       -2.2754651209    0.1663169904   -0.3322399813
6    
Iteration 8 Energy -77.99068983
C       -0.0821647479    0.0043402694   -0.0274697329
H       -0.0856447607    0.0714768791    1.0466877517
H        0.8827122497    0.0894020811   -0.4971588167
C       -1.2728828553    0.2280405494   -0.7685205855
H       -1.2295777487    0.0761426204   -1.8350139719
H       -2.2425540410    0.0795481826   -0.3197611924
6    
Iteration 9 Energy -77.99087342
C       -0.0816736697    0.0114000917   -0.0241961453
H       -0.1000719891    0.1283804840    1.0466552260
H        0.8750084534    0.1456971160   -0.5019046239
C       -1.2797253522    0.2064747673   -0.7706795865
H       -1.2448972220    0.0330958699   -1.8366408320
H       -2.2486821910    0.0325344037   -0.3221307067
6    
Iteration 10 Energy -77.99110199
C       -0.0868334567    0.0123425457   -0.0228989731
H       -0.1073638890    0.1708041425    1.0430562587
H        0.8673231364    0.1829416279   -0.4941148731
C       -1.2838555146    0.1879776978   -0.7788533984
H       -1.2649472472    0.0066423160   -1.8437829347
H       -2.2440670446   -0.0009062893   -0.3201799804
6    
Iteration 11 Energy -77.99102437
C       -0.0973539277    0.0201715754   -0.0246167254
H       -0.1185247441    0.2295908873    1.0334039515
H        0.8480074477    0.2424875962   -0.4937800382
C       -1.2973570473    0.1742905497   -0.7838392251
H       -1.2723545403   -0.0390704713   -1.8426743060
H       -2.2458436207   -0.0493527337   -0.3181951104
6    
Iteration 12 Energy -77.99099953
C       -0.1039013452    0.0285630630   -0.0257802872
H       -0.1329360377    0.2641379765    1.0270259136
H        0.8337014423    0.2775963900   -0.4986479646
C       -1.3051485988    0.1658847115   -0.7862867246
H       -1.2770332914   -0.0667905593   -1.8406348353
H       -2.2458520634   -0.0797552771   -0.3161258848
6    
Iteration 13 Energy -77.99102124
C       -0.1104209461    0.0470174988   -0.0260261201
H       -0.1502552662    0.3162317003    1.0192199890
H        0.8155275002    0.3314477088   -0.5040334817
C       -1.3161071509    0.1203971729   -0.7901971254
H       -1.2797655922   -0.1374087776   -1.8383544027
H       -2.2437947428   -0.1541466655   -0.3104077824
6    
Iteration 14 Energy -77.99101288
C       -0.1122472094    0.0464929042   -0.0264100811
H       -0.1527763776    0.3156339798    1.0186495004
H        0.8125475877    0.3322251690   -0.5055126794
C       -1.3188237487    0.1198571027   -0.7892920586
H       -1.2810969459   -0.1417708927   -1.8366992207
H       -2.2465804185   -0.1590379318   -0.3113438322
6    
Iteration 15 Energy -77.99101581
C       -0.1117357665    0.0463861439   -0.0263099092
H       -0.1521097625    0.3152806979    1.0188059601
H        0.8133074139    0.3316278773   -0.5052031121
C       -1.3181636730    0.1198817781   -0.7893439548
H       -1.2807333414   -0.1406638114   -1.8369882201
H       -2.2461544446   -0.1577924108   -0.3112479471
6    
Iteration 16 Energy -77.99100259
C       -0.1125701159    0.0470650830   -0.0266308733
H       -0.1523954751    0.3153282820    1.0186298725
H        0.8125340509    0.3318760857   -0.5055011290
C       -1.3189503451    0.1235685042   -0.7892962128
H       -1.2811313694   -0.1400130740   -1.8363425514
H       -2.2465766346   -0.1571489374   -0.3119704578
6    
Iteration 17 Energy -77.99099268
C       -0.1135025168    0.0478835762   -0.0268211815
H       -0.1528780508    0.3162340554    1.0184716965
H        0.8117788907    0.3326933004   -0.5054317569
C       -1.3198243920    0.1255511622   -0.7897147651
H       -1.2820144170   -0.1404983163   -1.8362889041
H       -2.2465753888   -0.1579191538   -0.3121336949
6    
Iteration 18 Energy -77.99099295
C       -0.1132909676    0.0478352675   -0.0267521993
H       -0.1527542522    0.3159778219    1.0185613762
H        0.8119830385    0.3324329319   -0.5054446442
C       -1.3196859198    0.1254136243   -0.7896618786
H       -1.2819183300   -0.1403533933   -1.8363309326
H       -2.2466194446   -0.1577318043   -0.3121498146
