************************************************************************
* This file is part of OpenMolcas.                                     *
*                                                                      *
* OpenMolcas is free software; you can redistribute it and/or modify   *
* it under the terms of the GNU Lesser General Public License, v. 2.1. *
* OpenMolcas is distributed in the hope that it will be useful, but it *
* is provided "as is" and without any express or implied warranties.   *
* For more details see the full text of the license in the file        *
* LICENSE or in <http://www.gnu.org/licenses/>.                        *
************************************************************************

#Hamiltonian NRH
#Nucleus UNK
#Contraction CCC
#AllElectron AE_

************************************************************************
* This file has been generated from Basis Set Exchange data:           *
*   https://www.basissetexchange.org                                   *
* Version: 1  (Data from ccRepo/Grant Hill)                            *
************************************************************************

/H.cc-pVTZ-3P.Dunning.5s2p1d.3s2p1d.
T.H. Dunning. J. Chem. Phys. 90 (1989) 1007-1023. doi:10.1063/1.456153
HYDROGEN (5s,2p,1d) -> [3s,2p,1d]
     1.0   2
* s-type functions
    5    3
         33.87000000
          5.09500000
          1.15900000
          0.32580000
          0.10270000
  0.0060680000  0.0000000000  0.0000000000
  0.0453080000  0.0000000000  0.0000000000
  0.2028220000  0.0000000000  0.0000000000
  0.5039030000  1.0000000000  0.0000000000
  0.3834210000  0.0000000000  1.0000000000
* p-type functions
    2    2
          1.40700000
          0.38800000
  1.0000000000  0.0000000000
  0.0000000000  1.0000000000
* d-type functions
    1    1
          1.05700000
  1.0000000000


/C.cc-pVTZ-3P.Dunning.10s8p2d1f.4s6p2d1f.
T.H. Dunning. J. Chem. Phys. 90 (1989) 1007-1023. doi:10.1063/1.456153
CARBON (10s,8p,2d,1f) -> [4s,6p,2d,1f]
     6.0   3
* s-type functions
   10    4
       8236.00000000
       1235.00000000
        280.80000000
         79.27000000
         25.59000000
          8.99700000
          3.31900000
          0.90590000
          0.36430000
          0.12850000
  0.0005310000 -0.0001130000  0.0000000000  0.0000000000
  0.0041080000 -0.0008780000  0.0000000000  0.0000000000
  0.0210870000 -0.0045400000  0.0000000000  0.0000000000
  0.0818530000 -0.0181330000  0.0000000000  0.0000000000
  0.2348170000 -0.0557600000  0.0000000000  0.0000000000
  0.4344010000 -0.1268950000  0.0000000000  0.0000000000
  0.3461290000 -0.1703520000  0.0000000000  0.0000000000
  0.0393780000  0.1403820000  1.0000000000  0.0000000000
 -0.0089830000  0.5986840000  0.0000000000  0.0000000000
  0.0023850000  0.3953890000  0.0000000000  1.0000000000
* p-type functions
    8    6
         18.71000000
          4.13300000
          1.20000000
          0.38270000
          0.12090000
	0.0806
	0.05373333333333333
	0.03582222222222222
  0.0140310000  0.0000000000  0.0000000000	0.	0.	0.
  0.0868660000  0.0000000000  0.0000000000	0.	0.	0.
  0.2902160000  0.0000000000  0.0000000000	0.	0.	0.
  0.5010080000  1.0000000000  0.0000000000	0.	0.	0.
  0.3434060000  0.0000000000  1.0000000000	0.	0.	0.
	0.	0.	0.	1.	0.	0.
	0.0	0.	0.	0.	1.	0.
	0.	0.	0.	0.	0.	1.
* d-type functions
    2    2
          1.09700000
          0.31800000
  1.0000000000  0.0000000000
  0.0000000000  1.0000000000
* f-type functions
    1    1
          0.76100000
  1.0000000000

